units		metal
boundary 	p p s
read_data	input1.data.gz
  orthogonal box = (-70.5795 -61.1236 2.50078) to (80.8507 70.0186 186.004)
  4 by 2 by 4 MPI processor grid
  reading atoms ...
  324000 atoms
  reading velocities ...
  324000 velocities

#mass  1          59.254250 # AAtom
#mass 1          63.546000 # Cu
mass 1          58.693000 # Ni
#mass 3          58.933000 # Co
#mass 4          55.845000 # Fe

## Potential
pair_style              eam/alloy
pair_coeff              * * /home/utt/potentials/FeCoCrNiCu.set.alloy Ni

thermo          20
thermo_style    custom step pe enthalpy press lx ly lz vol pxx pyy pzz pxy pxz pyz fmax
thermo_modify   flush yes

label loop1
    variable loopvar loop 5
        min_style       cg
        minimize        0.0 1e-6 10000 10000
WARNING: Using 'neigh_modify every 1 delay 0 check yes' setting during minimization (../min.cpp:168)
Last active /omp style is pair_style eam/alloy/omp
Neighbor list info ...
  update every 1 steps, delay 0 steps, check yes
  max neighbors/atom: 2000, page size: 100000
  master list distance cutoff = 7.71575
  ghost atom cutoff = 7.71575
  binsize = 3.85788, bins = 40 34 48
  1 neighbor lists, perpetual/occasional/extra = 1 0 0
  (1) pair eam/alloy/omp, perpetual
      attributes: half, newton on, omp
      pair build: half/bin/atomonly/newton/omp
      stencil: half/bin/3d/newton
      bin: standard
Per MPI rank memory allocation (min/avg/max) = 11.55 | 11.7 | 11.93 Mbytes
Step PotEng Enthalpy Press Lx Ly Lz Volume Pxx Pyy Pzz Pxy Pxz Pyz Fmax 
       0   -1434034.9   -1593046.4   -69910.558    151.43018    131.14223    183.50216    3644149.4   -70104.282   -70103.726   -69523.666 -5.5764797e-09 1.2531962e-08   -1.3416743   0.19071022 
      20   -1434791.5   -1560534.8   -55283.908    151.43018    131.14223    183.50216    3644149.4    -62078.35   -62077.774     -41695.6 1.7641583e-10 1.0651552e-09   -1.2677463   0.12999434 
      40   -1435465.3   -1537704.2   -45449.197    151.43018    131.14223    181.48686    3604127.8    -57145.54   -57144.922   -22057.129 4.8046733e-09 -8.1339576e-09   -1.1988795   0.13588709 
      60   -1435780.5   -1525247.6    -39771.66    151.43018    131.14223    181.48686    3604127.8    -54081.07   -54080.392   -11153.519 3.5093648e-09 -5.7406926e-09   -1.1022007  0.054121385 
      80   -1435835.1   -1515570.3   -35445.451    151.43018    131.14223    181.48686    3604127.8   -51701.614   -51700.859   -2933.8784 -6.1933259e-09 1.2921435e-08   -1.0009664 0.0080255839 
     100   -1435837.3   -1513994.3   -34743.852    151.43018    131.14223    181.48686    3604127.8   -51315.586   -51314.782   -1601.1871 1.1788178e-09 -2.1742448e-09  -0.93462905 0.0040775832 
     120   -1435838.6   -1512563.1   -34490.796    151.43018    131.14223    179.46753    3564026.2    -51535.72   -51534.766   -401.90156 -7.350963e-10 1.5685606e-09   -0.7800198 0.00065141237 
     140   -1435838.7   -1512288.4   -34367.279    151.43018    131.14223    179.46753    3564026.2   -51467.715   -51466.762   -167.35893 4.7843482e-09 -9.2661179e-09  -0.77715918 0.00039007391 
     160   -1435838.7   -1512165.1   -34311.838    151.43018    131.14223    179.46753    3564026.2   -51437.116   -51436.026   -62.370125 -2.6261799e-09 5.5390185e-09  -0.63122563 0.00010319127 
     180   -1435838.7   -1512119.3   -34291.269    151.43018    131.14223    179.46753    3564026.2   -51425.817    -51424.71   -23.279093 -1.0126682e-08 2.1604042e-08  -0.61217944 0.00020975123 
     191   -1435838.7   -1512105.4    -34285.03    151.43018    131.14223    179.46753    3564026.2   -51422.373   -51421.221   -11.495948 -6.745806e-09 1.4242194e-08  -0.56506292 1.331778e-05 
Loop time of 26.2555 on 32 procs for 191 steps with 324000 atoms

99.9% CPU use with 32 MPI tasks x no OpenMP threads

Minimization stats:
  Stopping criterion = linesearch alpha is zero
  Energy initial, next-to-last, final = 
        -1434034.89289     -1435838.71276     -1435838.71276
  Force two-norm initial, final = 16.753 0.00282833
  Force max component initial, final = 0.19071 1.33178e-05
  Final line search alpha, max atom move = 0.000976562 1.30056e-08
  Iterations, force evaluations = 191 401

MPI task timing breakdown:
Section |  min time  |  avg time  |  max time  |%varavg| %total
---------------------------------------------------------------
Pair    | 22.115     | 22.506     | 23.671     |   8.5 | 85.72
Neigh   | 0.072954   | 0.076877   | 0.083133   |   1.2 |  0.29
Comm    | 1.4961     | 2.6227     | 3.069      |  26.3 |  9.99
Output  | 0.021266   | 0.021458   | 0.02196    |   0.1 |  0.08
Modify  | 0.098869   | 0.13038    | 0.15751    |   4.6 |  0.50
Other   |            | 0.8977     |            |       |  3.42

Nlocal:    10125 ave 10350 max 9900 min
Histogram: 16 0 0 0 0 0 0 0 0 16
Nghost:    12551.5 ave 13970 max 11133 min
Histogram: 16 0 0 0 0 0 0 0 0 16
Neighs:    877162 ave 906653 max 859524 min
Histogram: 11 5 0 5 3 0 0 0 0 8

Total # of neighbors = 28069200
Ave neighs/atom = 86.6333
Neighbor list builds = 2
Dangerous builds = 0
        fix             3 all box/relax x 0.0 y 0.0
        min_style       cg
        minimize        0.0 1e-6 10000 10000
WARNING: Using 'neigh_modify every 1 delay 0 check yes' setting during minimization (../min.cpp:168)
Last active /omp style is pair_style eam/alloy/omp
Per MPI rank memory allocation (min/avg/max) = 11.63 | 11.74 | 12.01 Mbytes
Step PotEng Enthalpy Press Lx Ly Lz Volume Pxx Pyy Pzz Pxy Pxz Pyz Fmax 
     191   -1435838.7   -1512105.4   -34289.284    151.43018    131.14223    179.44527      3563584   -51428.753   -51427.601   -11.497374 -6.7005899e-09 1.4229815e-08  -0.56513303 1.331778e-05 
     200   -1436037.6   -1505785.7   -31415.026    151.29389     131.0242    179.44527    3557172.5   -47992.327   -47991.225    1738.4753 -7.0117066e-09 1.4314055e-08  -0.56938188 0.0090328369 
     220   -1436428.4   -1491224.6   -24779.695    150.99103    130.76193    179.44527    3542945.5   -40013.032   -40011.999    5685.9453 -6.6131772e-09 1.4090638e-08  -0.57528811  0.029133902 
     240   -1436747.3   -1476428.1   -18016.488    150.68817    130.49965    179.44527    3528746.9   -31871.467   -31870.469    9692.4711 -7.0333082e-09 1.4615727e-08  -0.61093849  0.049163254 
     260   -1436991.9   -1461136.8   -11006.857    150.38531    130.23737    179.44527    3514576.9   -23417.652   -23416.793    13813.874 -6.929431e-09 1.4445208e-08  -0.63436631  0.069364051 
     280   -1437160.8   -1445621.1   -3872.3561    150.08245     129.9751    179.44527    3500435.5   -14791.039   -14790.303    17964.274 -7.1600118e-09 1.4596969e-08  -0.65985536  0.089436833 
     300   -1437252.4   -1429791.2    3428.8626    149.77959    129.71283    179.44527    3486322.7   -5944.1233   -5943.5735    22174.285 -7.2142568e-09 1.4699357e-08  -0.71733822   0.10944274 
     320   -1437273.4   -1419504.1    8187.7084    149.58257    129.54005    179.44527      3477099   -112.61231   -78.549314    24754.287 -7.2022777e-09 1.448765e-08    5.6691586  0.082144654 
     340   -1437274.1     -1419521    8180.4228    149.57311    129.54612    179.44527      3477042    9.9094901    -178.2088    24709.568 -7.0506482e-09 1.4338642e-08   -36.752811  0.070612475 
     360   -1437274.4   -1419413.8    8230.1849    149.57593    129.53946    179.44527    3476928.7    5.2076318   -41.069234    24726.416 -7.021646e-09 1.4323249e-08   -9.6573854  0.067379623 
     380   -1437274.4   -1419458.8    8209.3755    149.57497    129.54156    179.44527    3476962.9    4.2227696   -87.885618    24711.789 -7.0769758e-09 1.4325112e-08   -18.403174   0.06663692 
     400   -1437274.8   -1419519.8    8181.4475    149.57295    129.54351    179.44527    3476968.2    12.693952   -136.91626    24668.565 -7.0785497e-09 1.4282356e-08   -29.376947   0.05955515 
     420   -1437274.9   -1419443.2    8216.9963    149.57557    129.53843    179.44527    3476892.7    1.2425362   -33.881177    24683.627 -7.0393733e-09 1.4287721e-08   -7.5282517  0.058247158 
     440     -1437275   -1419548.6    8168.2463     149.5734    129.54329    179.44527    3476972.9   -2.2123694   -142.32239    24649.274 -7.0289564e-09 1.4285061e-08   -27.565148  0.056666778 
     460   -1437275.5   -1419532.7    8175.9772    149.57356    129.54058    179.44527    3476903.7    1.2372196   -94.640448    24621.335 -7.0501035e-09 1.4295049e-08   -19.113489  0.049169562 
     480   -1437275.5   -1419488.5    8196.4694    149.57485    129.53785    179.44527    3476860.6   -2.4985508   -38.245657    24630.152 -7.0406826e-09 1.4288744e-08   -7.6451851  0.048540351 
     500   -1437275.7   -1419654.1    8119.9376    149.57225    129.54459    179.44527    3476980.9   -18.387122   -194.47193    24572.672 -7.0036376e-09 1.4257001e-08   -34.433274  0.050054465 
     520   -1437275.9   -1419507.5    8187.9582    149.57432    129.53692    179.44527    3476823.3  -0.47951524   -28.858978    24593.213 -7.0359383e-09 1.4204643e-08   -6.2388527  0.053174099 
     540     -1437276   -1419630.5    8131.0948    149.57284    129.54188    179.44527      3476922   -18.523593   -144.21332    24556.021 -6.9879745e-09 1.4194338e-08   -24.801176  0.053661402 
     560   -1437276.2   -1419513.7     8185.339     149.5742    129.53593    179.44527    3476793.9  0.076612463   -14.600282    24570.541 -7.0120822e-09 1.4185274e-08   -3.6278183  0.055267824 
     580   -1437276.5   -1419566.9    8160.8803    149.57153    129.53899    179.44527    3476813.9    20.471319   -77.876347    24540.046 -7.0024285e-09 1.4155095e-08   -19.570647  0.054897372 
     600   -1437276.5   -1419556.3    8165.7955    149.57303    129.53729    179.44527      3476803    3.6220774   -47.985387     24541.75 -6.9224524e-09 1.4140261e-08   -10.663175   0.05483556 
     620   -1437277.2   -1419301.9    8283.9939    149.55797    129.54013    179.44527    3476529.3    288.68891   -10.737156     24574.03 -6.9352181e-09 1.4100219e-08   -57.776293  0.050719066 
     640   -1437279.6   -1419646.9    8125.7863    149.58036      129.526    179.44527    3476670.4   -108.84453    114.72818    24371.475 -6.6599359e-09 1.3772976e-08    41.648045  0.038354276 
     660   -1437283.1   -1419922.8    8000.9049    149.56524    129.52844    179.44527    3476384.5    27.391959    8.5451509    23966.778 -5.863773e-09 1.2215491e-08   -4.3982576   0.07740889 
     680   -1437283.1   -1419962.5     7982.633    149.56547    129.52839    179.44527    3476388.6    12.705699   -2.2253955    23937.419 -5.8460172e-09 1.2158772e-08   -3.6562222  0.082061691 
     700   -1437283.2   -1419989.3    7970.3044    149.56499    129.52842    179.44527    3476378.2    11.786036   -10.017698    23909.145 -5.7578532e-09 1.2071609e-08   -4.9576733   0.08684621 
     720   -1437283.2   -1420029.5    7951.7873    149.56373    129.52932    179.44527    3476373.2     17.52675   -35.379711    23873.215 -5.738449e-09 1.1930407e-08   -10.847634  0.092056702 
     740   -1437283.2   -1420119.2    7910.4225    149.56259     129.5311    179.44527    3476394.3    6.9282985   -89.077204    23813.417 -5.6464212e-09 1.1734128e-08   -19.011452  0.098733475 
     760   -1437283.3   -1420180.1    7882.4603    149.56373    129.52936    179.44527    3476374.4   -24.856399   -78.376084    23750.613 -5.6801571e-09 1.115478e-08   -10.956691   0.10640983 
     780   -1437283.4   -1420175.2    7884.8857    149.56405    129.52651    179.44527    3476305.2   -25.222517   -29.952125    23709.832 -5.3836401e-09 1.1233544e-08   -1.7213346   0.11249007 
     800   -1437283.4   -1420191.9    7877.3268    149.56362    129.52496    179.44527    3476253.7    -22.02051   -8.4646305    23662.466 -5.2758207e-09 1.0988543e-08    1.7337987   0.11798258 
     820   -1437283.5   -1420236.2    7857.0222    149.56397    129.52337    179.44527    3476218.9   -37.402127     5.528012    23602.941 -5.1228718e-09 1.0762242e-08    7.2793014   0.12340199 
     840   -1437283.6   -1420287.5    7833.5397    149.56573    129.52012    179.44527    3476172.9   -73.358765    43.964292    23530.014 -5.018863e-09 1.0447823e-08    21.317582   0.12926596 
     860   -1437283.7   -1420321.2    7818.2583    149.56521     129.5169    179.44527    3476074.3   -71.242153    89.159859    23436.857 -4.7774413e-09 1.0124065e-08    29.429214   0.13628129 
     880   -1437283.8   -1420374.9    7793.7382    149.56057    129.51791    179.44527    3475993.5   -19.600799    62.637422    23338.178 -4.6140735e-09 9.8268575e-09    14.678975   0.14203015 
     900   -1437283.9   -1420446.7    7760.8333    149.55749    129.51867    179.44527    3475942.2    5.1345561    33.874649    23243.491 -4.5864209e-09 9.5185248e-09    4.5936831   0.14612337 
     920     -1437284   -1420501.9    7735.5998    149.55515    129.51816    179.44527    3475874.2     25.10706    30.345891    23151.346 -4.4266028e-09 9.1745804e-09   0.16580364   0.14942555 
     940   -1437284.2   -1420520.7    7727.2038    149.55106    129.51762    179.44527    3475764.6    80.605244    39.217676    23061.788 -4.2299366e-09 8.8650794e-09   -8.6119335   0.15207437 
     960   -1437284.3   -1420569.9    7704.8898    149.54442    129.51898    179.44527    3475646.7    163.09732    10.956658    22940.615 -3.9806121e-09 8.4172916e-09   -29.441076   0.15405454 
     980   -1437284.5   -1420770.9    7612.3625    149.54394    129.51876    179.44527    3475629.9    117.05343   -38.170493    22758.204 -3.6939535e-09 7.8277174e-09   -30.008453   0.15470519 
    1000   -1437284.7   -1420929.7    7539.2483     149.5466    129.51582    179.44527    3475612.8    40.259314   -33.357039    22610.843 -3.5055162e-09 7.3644388e-09   -14.652286   0.15387228 
    1020   -1437284.8   -1421032.7    7491.9496    149.54694    129.51374    179.44527    3475564.9     11.43504   -25.212875    22489.627 -3.3040438e-09 6.9390946e-09   -7.6988941   0.15206086 
    1040     -1437285   -1421141.9    7441.7842    149.54618    129.51294    179.44527    3475525.6   -4.5243495   -38.935369    22368.812 -3.04863e-09 6.4757396e-09    -7.274893   0.14932713 
    1060   -1437285.1   -1421317.5    7360.8331    149.54641    129.51331    179.44527      3475541   -54.278239   -91.349652    22228.127 -2.8133042e-09 6.0349459e-09   -7.7723597   0.14550052 
    1080   -1437285.3   -1421555.1    7251.3199    149.54987    129.51185    179.44527      3475582   -164.48285   -132.15003    22050.593 -2.5723278e-09 5.5633518e-09    5.2537327   0.13939006 
    1100   -1437285.5   -1421546.1    7255.9377    149.54801    129.50685    179.44527    3475404.8   -125.32136   -40.467795    21933.602 -2.2222284e-09 4.8609861e-09    15.085803   0.13142851 
    1120   -1437285.6     -1421515    7270.6537    149.54357    129.50514    179.44527    3475255.5   -47.519882    4.2021515    21855.279 -2.0920136e-09 4.4236696e-09    8.8695927   0.12448935 
    1140   -1437285.7   -1421549.9    7254.7414    149.54126    129.50436    179.44527    3475181.1   -20.066141    12.659969     21771.63 -1.9141407e-09 4.0172714e-09    5.3121683   0.11760225 
    1160   -1437285.9   -1421595.3    7233.9885    149.54034    129.50302    179.44527    3475123.7   -14.819155    26.351464    21690.433 -1.7499582e-09 3.7026683e-09    6.8896091   0.11035562 
    1180     -1437286   -1421609.3    7227.7754    149.53994    129.50035    179.44527    3475042.6   -6.9440179    70.382597    21619.888 -1.6164048e-09 3.3877369e-09    13.641755   0.10252608 
    1200   -1437286.1   -1421563.7    7249.1517    149.53788    129.49688    179.44527    3474901.8    42.783458     146.1794    21558.492 -1.4626374e-09 3.0707078e-09    18.494444   0.10078528 
    1220   -1437286.2   -1421628.6     7219.385    149.53399    129.49843    179.44527      3474853    83.360202    110.46138    21464.333 -1.2896902e-09 2.7160223e-09    4.2539578  0.098521418 
    1240   -1437286.3   -1421781.6    7148.7807    149.53356    129.50095    179.44527    3474910.7    47.788978    29.947386    21368.606 -1.0835892e-09 2.4527754e-09   -4.1336136  0.096477981 
    1260   -1437286.4   -1421867.4    7109.1953    149.53376    129.50134    179.44527    3474925.6     23.65903    2.3861768    21301.541 -1.0155599e-09 2.217529e-09   -4.7735013   0.09437838 
    1280   -1437286.5   -1421916.2    7086.7528    149.53317    129.50145    179.44527      3474915    21.182094   -9.7360179    21248.812 -9.6849207e-10 1.9943289e-09   -6.5722372  0.092074838 
    1300   -1437286.6   -1421962.7    7065.3695    149.53179    129.50232    179.44527    3474906.3    29.886274    -33.15873    21199.381 -8.20834e-10 1.8030226e-09   -12.566237  0.089531166 
    1320   -1437286.6   -1422038.5    7030.4363    149.53024    129.50426    179.44527    3474922.2    32.022628   -81.978993    21141.265 -6.8900048e-10 1.5424737e-09   -22.080377  0.086486648 
    1340   -1437286.7   -1422122.7    6991.6222    149.53109    129.50428    179.44527    3474942.4  -0.10823945   -103.04297    21078.018 -6.1034463e-10 1.3444198e-09   -20.018554  0.082698097 
    1360   -1437286.8   -1422129.6    6988.5445    149.53292    129.50139    179.44527    3474907.4    -22.35593   -55.707145    21043.697 -5.5278313e-10 1.1686771e-09   -7.0261336  0.079210306 
    1380   -1437286.9   -1422118.3    6993.8335    149.53328    129.49955    179.44527    3474866.7   -20.181412   -20.002113    21021.684 -4.6606364e-10 9.9808252e-10  -0.76705226  0.076182651 
    1400   -1437286.9   -1422125.7    6990.4992    149.53338     129.4987    179.44527      3474846     -20.4038   -5.7662262    20997.667 -3.8733376e-10 8.5773781e-10    1.9303582  0.073225353 
    1420     -1437287     -1422144    6982.0999    149.53407    129.49776    179.44527    3474836.9   -32.291589    6.3360668    20972.255 -3.2101203e-10 7.2363994e-10    6.4032841  0.070184181 
    1440     -1437287   -1422156.2    6976.5266    149.53553    129.49597    179.44527    3474822.5   -52.323542    33.802419    20948.101 -2.7717805e-10 5.3209116e-10    15.255345  0.066784476 
    1460   -1437287.1   -1422146.8    6980.9544    149.53584    129.49437    179.44527      3474787   -49.643557    65.414844    20927.092 -2.1944087e-10 4.0357725e-10    20.639147  0.062572966 
    1480   -1437287.1   -1422146.2     6981.341    149.53363    129.49536    179.44527    3474762.3   -16.106876    53.929182    20906.201 -1.2698699e-10 2.1578615e-10    12.250734  0.059295205 
    1500   -1437287.2   -1422165.1    6972.6147    149.53197    129.49672    179.44527    3474760.2     3.316668    29.770478    20884.757 -3.6824939e-11 7.5602516e-11    4.1306415  0.056826048 
    1520   -1437287.2   -1422182.1     6964.833    149.53117    129.49735    179.44527    3474758.4    11.538766    17.402483    20865.558 -2.1832875e-11 -6.4856482e-11   0.29430107   0.05681628 
    1540   -1437287.3   -1422186.5    6962.8529    149.53028    129.49767    179.44527    3474746.5    24.706929    13.691825     20850.16 5.1725483e-11 -1.451249e-10   -2.8498707   0.05672628 
    1560   -1437287.3   -1422182.1    6964.9239     149.5285    129.49849    179.44527    3474726.8    52.899726    5.1494166    20836.723  1.01512e-10 -2.6166926e-10   -9.6907308  0.056528856 
    1580   -1437287.4   -1422198.3    6957.4673    149.52632    129.50021    179.44527    3474722.3    80.423706   -23.441441     20815.42 1.3576887e-10 -3.8488378e-10   -20.140049  0.056158201 
    1600   -1437287.4   -1422253.1    6932.2095    149.52707    129.50056    179.44527    3474749.4    56.776133   -42.348449    20782.201 2.4671475e-10 -5.9530778e-10   -19.256619  0.063124507 
    1620   -1437287.5   -1422289.7    6915.3337    149.52918     129.4993    179.44527    3474764.4    20.110543   -31.082669    20756.973 3.1596021e-10 -7.5167341e-10   -10.330531  0.069387978 
    1640   -1437287.5   -1422307.5     6907.104    149.53023    129.49842    179.44527    3474765.2    3.0650842   -20.264681    20738.512 3.5636267e-10 -8.6619732e-10   -5.1411071  0.074816087 
    1660   -1437287.6   -1422329.8    6896.8718    149.53074    129.49815    179.44527    3474770.1   -8.0788408   -20.434035    20719.128 4.7502726e-10 -9.9955181e-10    -3.096824   0.08000212 
    1680   -1437287.6   -1422376.6    6875.2425    149.53182    129.49817    179.44527    3474795.7   -34.448411   -32.581894    20692.758 4.678292e-10 -1.1864062e-09  -0.44820306  0.085153549 
    1700   -1437287.7     -1422448    6842.2617    149.53474     129.4973    179.44527      3474840   -92.742814   -38.055298    20657.583 5.6356587e-10 -1.3096272e-09    9.3906317  0.090766367 
    1720   -1437287.8   -1422450.7    6841.0989    149.53629    129.49518    179.44527    3474819.3   -110.33652   -1.7064914     20635.34 6.5780541e-10 -1.5153139e-09    19.428573   0.09742086 
    1740   -1437287.8   -1422399.7    6864.8006    149.53359    129.49503    179.44527    3474752.5   -54.076232    20.518548    20627.959 7.9049295e-10 -1.7966809e-09    13.089366   0.10313284 
    1760   -1437287.9   -1422387.4    6870.5659    149.53157    129.49564    179.44527      3474722    -19.63292    18.196538    20613.134 8.9104228e-10 -1.9984236e-09    6.2463943   0.10757721 
    1780     -1437288   -1422392.1    6868.4318    149.53073    129.49577    179.44527    3474705.9   -6.6480758    17.987149    20593.956 9.5689984e-10 -2.1763224e-09    3.7914067   0.11151512 
    1800   -1437288.1   -1422386.2      6871.28    149.53027    129.49519    179.44527    3474679.5    4.7279825    32.120992    20576.991 1.0517499e-09 -2.4024834e-09    4.3048474    0.1151672 
    1820   -1437288.2   -1422333.4    6895.7733    149.52881    129.49385    179.44527    3474609.8    44.288522    72.922063    20570.109 1.1759328e-09 -2.6463992e-09    4.5347224    0.1186477 
    1840   -1437288.3   -1422253.5    6932.8765    149.52458    129.49373    179.44527    3474508.2    130.75169    104.28995    20563.588 1.2969216e-09 -2.9826825e-09   -5.7117236   0.12232549 
    1860   -1437288.4   -1422352.9    6887.0234    149.52363     129.4963    179.44527    3474554.9    117.88035    38.585949    20504.604 1.466073e-09 -3.3274281e-09   -15.540587   0.12561351 
    1880   -1437288.5   -1422474.6    6830.8013    149.52605    129.49684    179.44527    3474625.9    51.498898   -3.6233338    20444.528 1.6210807e-09 -3.5884079e-09   -11.046588   0.12760418 
    1900   -1437288.6   -1422532.8    6803.9664     149.5272    129.49647    179.44527    3474642.8    21.757546   -12.081493    20402.223 1.7230591e-09 -3.9270734e-09   -7.0861397   0.12883524 
    1920   -1437288.7   -1422573.5    6785.2507    149.52719    129.49647    179.44527    3474642.3    13.331334   -20.744357    20363.165 1.9028917e-09 -4.1954071e-09   -7.1288851   0.12949239 
    1940   -1437288.8   -1422634.4     6757.196    149.52657    129.49752    179.44527    3474656.2    6.7930184   -51.881518    20316.676 2.0680902e-09 -4.5440058e-09   -11.704113   0.12955402 
    1960     -1437289     -1422773    6693.2301     149.5268    129.50008    179.44527      3474730    -34.62042   -130.02979    20244.341 2.2155045e-09 -4.9489872e-09   -18.541096   0.12884296 
    1980   -1437289.1     -1422918    6626.3333    149.52998    129.49971    179.44527    3474794.1   -116.60976   -163.40602    20159.016 2.4249182e-09 -5.3533111e-09   -9.4936384   0.12689547 
    2000   -1437289.3   -1422854.4    6655.9295    149.53035    129.49509    179.44527    3474678.7   -96.167643   -66.108225    20130.064 2.656464e-09 -5.8537561e-09    4.7991248   0.12416773 
    2020   -1437289.4   -1422795.4    6683.4095    149.52834    129.49296    179.44527      3474575   -45.885307    -9.914956    20106.029 2.8203116e-09 -6.2195264e-09     5.892647    0.1211608 
    2040   -1437289.6   -1422796.6    6683.0111    149.52713    129.49212    179.44527    3474524.3    -25.58896    7.3077498    20067.315 3.0134675e-09 -6.6811266e-09    5.3229725   0.11764274 
    2060   -1437289.7   -1422816.3    6674.0665    149.52698    129.49091    179.44527    3474488.5   -25.465485    24.163291    20023.502 3.1426711e-09 -7.1353441e-09    8.4300112   0.11380252 
    2080   -1437289.9     -1422818    6673.4608    149.52773    129.48821    179.44527    3474433.3    -31.55135     70.02042    19981.913 3.3682655e-09 -7.6043837e-09    18.072151    0.1142459 
    2100     -1437290   -1422763.4    6698.9569     149.5276    129.48402    179.44527    3474317.8    -7.573505    157.32446     19947.12 3.6020686e-09 -8.0454256e-09     29.80406   0.11386317 
    2120   -1437290.2   -1422759.3    6701.0879    149.52357     129.4844    179.44527    3474234.2    53.677047    158.60441    19890.982 3.8193767e-09 -8.5532643e-09    18.667391   0.11231549 
    2140   -1437290.4   -1422877.3    6646.6749    149.52085      129.488    179.44527    3474267.7    58.172534    70.619574    19811.233 4.0426015e-09 -8.9157034e-09    1.5273599   0.11007441 
    2160   -1437290.5   -1422979.6    6599.4964    149.52033    129.48949    179.44527    3474295.7    37.284062    19.529175    19741.676 4.229156e-09 -9.3336569e-09   -4.0703501    0.1073679 
    2180   -1437290.7   -1423040.9    6571.3134    149.51971    129.48982    179.44527    3474290.1     30.41311    -0.884175    19684.411 4.4057236e-09 -9.7792091e-09   -6.5805139   0.10411299 
    2200   -1437290.8   -1423086.7    6550.3069    149.51809    129.49051    179.44527    3474271.1    41.668532   -22.200423    19631.453 4.5612993e-09 -1.0226821e-08   -12.618931    0.1002512 
    2220     -1437291     -1423151    6520.7191    149.51539    129.49261    179.44527    3474264.5    61.803964   -71.059081    19571.412 4.8288839e-09 -1.0632012e-08   -25.411987  0.095460207 
    2240   -1437291.1   -1423262.2    6469.4904    149.51397    129.49467    179.44527    3474286.8     50.59311   -133.44693    19491.325 5.0203949e-09 -1.114114e-08   -34.897943  0.093610231 
    2260   -1437291.3   -1423336.8    6435.1497     149.5164    129.49222    179.44527    3474277.5   -1.1116638   -114.30468    19420.866 5.2048207e-09 -1.1588426e-08   -21.751843  0.096670652 
    2280   -1437291.4   -1423344.2    6431.9106     149.5182    129.48867    179.44527    3474224.2   -24.270434   -58.065232    19378.067 5.4303276e-09 -1.1867101e-08    -7.032639   0.09849307 
    2300   -1437291.5   -1423348.3    6430.1766    149.51847    129.48661    179.44527    3474175.1   -26.381295   -24.423077    19341.334 5.5549094e-09 -1.2121889e-08  -0.41130794  0.099596001 
    2320   -1437291.6   -1423370.8    6419.9033    149.51864    129.48531    179.44527    3474144.1   -33.012245   -8.5935634    19301.316 5.6337074e-09 -1.2362581e-08    3.7438348   0.10015965 
    2340   -1437291.7   -1423403.9    6404.7218    149.51964    129.48362    179.44527    3474122.1   -54.107478    10.027889    19258.245 5.7740312e-09 -1.257568e-08    11.088058    0.1002174 
    2360   -1437291.8   -1423426.2    6394.5622    149.52143    129.48073    179.44527    3474086.3   -82.171621    50.918088     19214.94 5.8665774e-09 -1.2875015e-08     23.83494  0.099682647 
    2380     -1437292     -1423420    6397.6115    149.52109    129.47848    179.44527    3474017.9   -72.353798    91.097094    19174.091 6.054645e-09 -1.3222663e-08    29.430034  0.098310988 
    2400   -1437292.1   -1423426.3    6394.8121     149.5176    129.47958    179.44527    3473966.2   -24.535605     74.83982    19134.132 6.1179678e-09 -1.3587051e-08    17.583499   0.09636758 
    2420   -1437292.2   -1423457.8    6380.3973    149.51497    129.48114    179.44527      3473947    3.2833627    43.013633    19094.895 6.2262346e-09 -1.3829087e-08    6.5660854  0.094253536 
    2440   -1437292.3   -1423488.7    6366.2034    149.51355    129.48181    179.44527    3473931.8    14.798141      25.1304    19058.682 6.3733084e-09 -1.404104e-08    1.1375163  0.091908848 
    2460   -1437292.3   -1423506.3     6358.173    149.51224    129.48202    179.44527    3473907.2    28.889319    18.316408    19027.313 6.4754926e-09 -1.4294246e-08   -2.7190809  0.089239923 
    2480   -1437292.4   -1423513.4    6354.9649    149.51011    129.48262    179.44527      3473874    57.203153    8.7051568    18998.987 6.5892296e-09 -1.450595e-08   -9.7124393  0.086129481 
    2500   -1437292.5   -1423535.1    6345.0346    149.50719    129.48427    179.44527    3473850.4    91.908826   -21.546391    18964.742 6.6795781e-09 -1.4719676e-08    -21.69189  0.082209861 
    2520   -1437292.6   -1423601.5    6314.4642    149.50649    129.48526    179.44527    3473860.7    83.018282   -55.175733     18915.55 6.8702848e-09  -1.4967e-08   -26.249342  0.080854536 
    2540   -1437292.7   -1423662.6    6286.2876     149.5087    129.48377    179.44527      3473872    36.373537   -48.959461    18871.449 6.8518583e-09 -1.5050019e-08   -16.496484  0.079866619 
    2560   -1437292.7   -1423692.8    6272.3954    149.51022    129.48213    179.44527    3473863.4    8.3030112   -31.180676    18840.064 6.8872416e-09 -1.5090233e-08   -8.0428383  0.078861589 
    2580   -1437292.8   -1423716.6    6261.4946    149.51077    129.48121    179.44527    3473851.3   -4.7572223    -22.53568    18811.777 6.9889212e-09 -1.51431e-08   -4.0416323  0.077774537 
    2600   -1437292.9   -1423751.2    6245.5587    149.51122    129.48073    179.44527    3473848.8   -19.879534   -24.126277    18780.682 7.0426968e-09 -1.5290396e-08   -1.5481935  0.076564952 
    2620   -1437292.9   -1423803.5    6221.4778    149.51256    129.48003    179.44527    3473861.2    -52.38134   -27.807075    18744.622 7.1646843e-09 -1.5473059e-08    3.7637465  0.075192635 
    2640     -1437293   -1423852.4    6198.9069      149.515    129.47814    179.44527    3473867.2   -98.472462   -11.616999     18706.81 7.3248689e-09 -1.5753446e-08    15.241339  0.073503739 
    2660   -1437293.1   -1423846.6    6201.7028     149.5154    129.47601    179.44527    3473819.4   -99.580828    25.732711    18678.957 7.4478488e-09 -1.6055093e-08    22.325769  0.071305919 
    2680   -1437293.2   -1423818.8    6214.6885    149.51254    129.47612    179.44527    3473755.9    -50.04665    34.982454     18659.13 7.4838767e-09 -1.6288814e-08    14.900181  0.077618069 
    2700   -1437293.3   -1423819.1    6214.6621    149.51025    129.47685    179.44527    3473722.5   -17.418671    25.569237    18635.836 7.5860013e-09 -1.6482798e-08    7.1548785  0.083581253 
    2720   -1437293.3   -1423830.9    6209.3004    149.50906    129.47708    179.44527    3473700.7   -3.0776664    20.328138    18610.651 7.6744688e-09 -1.6554031e-08    3.5475716  0.088994612 
    2740   -1437293.4   -1423834.3    6207.8152    149.50817    129.47675    179.44527    3473671.3    9.7567994    26.240497    18587.448 7.7085123e-09 -1.665498e-08    2.2721578  0.094143632 
    2760   -1437293.5   -1423809.6     6219.302    149.50645    129.47618    179.44527    3473616.1    42.667663    44.867274    18570.371 7.7160941e-09 -1.6665483e-08  -0.35739332  0.099169671 
    2780   -1437293.5   -1423768.8    6238.2869    149.50271    129.47664    179.44527    3473541.4    108.22463    53.026721    18553.609 7.8975784e-09 -1.6852207e-08   -10.918086   0.10451331 
    2800   -1437293.6   -1423820.3    6214.6143    149.50041    129.47848    179.44527    3473537.4    126.14448    11.580043    18506.118 8.0069607e-09 -1.7113841e-08   -21.835474    0.1104203 
    2820   -1437293.7     -1423928    6164.8712    149.50241    129.47851    179.44527    3473584.9    68.516978   -19.707822    18445.804 8.1282442e-09 -1.7501973e-08   -16.989263   0.11537674 
    2840   -1437293.8   -1423990.9    6135.8935    149.50418    129.47751    179.44527    3473598.9    27.727899   -21.117229     18401.07 8.2699102e-09 -1.7841499e-08    -9.742221   0.11918489 
    2860   -1437293.9   -1424029.7    6118.0706    149.50476    129.47677    179.44527    3473592.7     10.42745   -19.191249    18362.976 8.4104443e-09 -1.8166578e-08   -6.2040636   0.12239671 
    2880     -1437294   -1424071.5    6098.7985    149.50477     129.4766    179.44527    3473588.2 0.0088426421   -26.817011    18323.204 8.5257653e-09 -1.8573045e-08   -5.6896096   0.12519756 
    2900   -1437294.1   -1424144.9    6064.9732    149.50512    129.47707    179.44527    3473609.2   -24.745275    -54.11461     18273.78 8.7463958e-09 -1.8992076e-08   -6.1579675   0.12761917 
    2920   -1437294.2     -1424275    6004.9094     149.5076    129.47733    179.44527    3473673.6   -95.408109   -95.405772    18205.542 8.8513157e-09 -1.922032e-08  -0.75838817   0.12972346 
    2940   -1437294.4   -1424353.6     5968.706    149.51088    129.47473    179.44527    3473680.2   -159.76025   -75.449725    18141.328 9.0000736e-09 -1.9436543e-08    14.759467   0.13146607 
    2960   -1437294.5   -1424286.1    6000.1234    149.50873    129.47205    179.44527    3473558.2   -105.29682   -8.1286253    18113.796 9.1830834e-09 -1.970698e-08    17.124557   0.13228342 
    2980   -1437294.6   -1424248.3    6017.7591    149.50543    129.47162    179.44527      3473470   -45.095638     14.31537    18084.058 9.3096823e-09 -1.9812293e-08     10.17533    0.1321931 
    3000   -1437294.7   -1424257.3    6013.7454     149.5036    129.47149    179.44527    3473424.2   -19.422663    17.299944    18043.359 9.4302992e-09 -2.0099415e-08    5.9991556   0.13142952 
    3020   -1437294.9   -1424276.8    6004.8635    149.50272    129.47084    179.44527    3473386.1   -9.7316489    25.412656     17998.91 9.6034564e-09 -2.025832e-08    5.7072682   0.13002361 
    3040     -1437295   -1424275.8    6005.4945    149.50203    129.46926    179.44527    3473327.6     4.097313    54.457844    17957.928 9.7207461e-09 -2.0543091e-08    8.5019399   0.12792827 
    3060   -1437295.1   -1424213.1    6034.6838    149.49986    129.46672    179.44527    3473209.2    57.635763    118.15021    17928.265 9.9245967e-09 -2.0852144e-08    10.361766   0.12492036 
    3080   -1437295.3   -1424149.5    6064.3482    149.49452    129.46628    179.44527    3473073.3    155.51192    151.11181    17886.421 1.0177562e-08 -2.1205576e-08   -1.5589889    0.1202291 
    3100   -1437295.5   -1424296.9    5996.3739    149.49283     129.4694    179.44527    3473117.9    138.33957    62.694025    17788.088 1.0426359e-08 -2.2021684e-08   -14.635521   0.11420865 
    3120   -1437295.7   -1424456.1    5922.8853    149.49477    129.47032    179.44527    3473187.5    67.351439    3.6228629    17697.681 1.0757082e-08 -2.2586229e-08   -12.449707   0.10831776 
    3140   -1437295.8   -1424543.1    5882.7836    149.49587    129.46984    179.44527    3473200.1    30.049234   -11.541066    17629.842 1.0913613e-08 -2.2956555e-08   -8.3855817   0.10227564 
    3160     -1437296   -1424601.3    5856.0481    149.49576     129.4695    179.44527    3473188.4    17.893852    -19.92247    17570.173 1.1043002e-08 -2.3124033e-08    -7.691709  0.095808739 
    3180   -1437296.1     -1424666    5826.2824    149.49496    129.46994    179.44527    3473181.6    12.806113   -42.430438    17508.472 1.1095297e-08 -2.3149919e-08   -10.887522  0.088861159 
    3200   -1437296.3   -1424779.4    5773.9904    149.49437    129.47163    179.44527    3473213.4    -9.944937   -99.478793    17431.395 1.1192123e-08 -2.298282e-08   -17.180753  0.088755967 
    3220   -1437296.5     -1424967    5687.3897    149.49624    129.47317    179.44527    3473298.2   -88.075145   -176.42116    17326.665 1.1314813e-08 -2.3148631e-08   -16.958452  0.089211042 
    3240   -1437296.7   -1425034.5       5656.4    149.49909    129.46962    179.44527    3473269.2   -141.11632   -135.87811    17246.194 1.1487011e-08 -2.3536557e-08    0.2131291  0.093557494 
    3260   -1437296.9   -1424950.2    5695.6001    149.49759    129.46546    179.44527    3473122.5   -88.993252   -39.476154     17215.27 1.1670553e-08 -2.3995838e-08    8.3244328  0.096701116 
    3280     -1437297   -1424914.3    5712.3947    149.49527    129.46399    179.44527    3473029.2   -42.073776  -0.86751434    17180.125 1.1816575e-08 -2.4220846e-08    6.8008758  0.098932759 
    3300   -1437297.1   -1424924.6    5707.7963    149.49397    129.46327    179.44527    3472979.8    -23.57654    11.266931    17135.698 1.1936951e-08 -2.4396062e-08     5.636105   0.10060335 
    3320   -1437297.3   -1424945.8    5698.1464    149.49351    129.46221    179.44527    3472940.9   -19.984716    25.196287    17089.228 1.2092027e-08 -2.461504e-08    7.5295612   0.10174805 
    3340   -1437297.4   -1424949.3    5696.6629    149.49352    129.46018    179.44527    3472886.6   -17.091777    59.792948    17047.287 1.2216623e-08 -2.4761873e-08    13.330831   0.10237101 
    3360   -1437297.6     -1424901    5719.1958    149.49278    129.45697    179.44527    3472783.1     12.36624    129.13186    17016.089 1.2261884e-08 -2.4945109e-08    20.620008   0.10241749 
    3380   -1437297.7     -1424844    5745.7651    149.48913    129.45564    179.44527    3472662.7    84.388089    172.51418    16980.393 1.2425565e-08 -2.5124244e-08    15.370391   0.10164123 
    3400   -1437297.9   -1424943.1    5700.0875    149.48617    129.45892    179.44527    3472681.8    97.826667    95.423559    16907.012 1.2646355e-08 -2.5583749e-08   -1.1788925   0.10007079 
    3420     -1437298   -1425076.8    5638.3588    149.48643    129.46101    179.44527    3472744.2     56.11922    24.754928    16834.202 1.2769622e-08 -2.5980456e-08     -6.47569  0.098123885 
    3440   -1437298.1   -1425153.6    5602.9533    149.48689     129.4613    179.44527    3472762.5    29.266932  -0.39062052    16779.984 1.2963252e-08 -2.6209499e-08   -6.1628491  0.095801699 
    3460   -1437298.3   -1425200.1    5581.5702    149.48663     129.4613    179.44527    3472756.4    21.444806   -11.730747    16734.997 1.2936316e-08 -2.65024e-08    -6.804254  0.093066266 
    3480   -1437298.4   -1425243.8    5561.4724    149.48573     129.4618    179.44527    3472749.1    22.999718   -30.060537    16691.478 1.3032511e-08 -2.6673011e-08   -10.436694  0.089890295 
    3500   -1437298.5   -1425311.8     5530.111    149.48453    129.46334    179.44527    3472762.5    21.016173   -72.045014    16641.362 1.3209151e-08 -2.670919e-08   -17.746635  0.086143236 
    3520   -1437298.6   -1425430.3    5475.4273    149.48447    129.46537    179.44527    3472815.3   -11.663465   -136.97417     16574.92 1.3293472e-08 -2.700128e-08   -23.652256  0.081327907 
    3540   -1437298.7   -1425510.7    5438.3508    149.48684    129.46394    179.44527      3472832    -64.89002   -136.24118    16516.184 1.3508711e-08 -2.7348402e-08   -13.790315  0.075406956 
    3560   -1437298.8   -1425469.7    5457.4616    149.48781    129.46014    179.44527    3472752.5    -62.02884   -61.275815     16495.69 1.3676494e-08 -2.7574078e-08  -0.59887315  0.076074986 
    3580   -1437298.9     -1425429    5476.3678    149.48701    129.45815    179.44527    3472680.8   -36.008363   -15.294155    16480.406 1.3773995e-08 -2.7627335e-08    3.0519957   0.07657263 
    3600     -1437299   -1425424.5    5478.5531    149.48632    129.45731    179.44527    3472642.3   -22.950603    1.5987185    16457.011 1.3864037e-08 -2.7662076e-08    3.7524913  0.076975392 
    3620   -1437299.1   -1425435.4    5473.6039    149.48624    129.45646    179.44527    3472617.6   -22.824183    13.802661    16429.833 1.3927983e-08 -2.7752071e-08    5.9593842  0.077290461 
    3640   -1437299.2   -1425441.1    5471.0768    149.48674    129.45493    179.44527    3472588.1   -28.864465    38.342011    16403.753 1.4064819e-08 -2.8053345e-08    11.544554  0.077497708 
    3660   -1437299.3   -1425417.4    5482.1318     149.4873    129.45231    179.44527      3472531   -26.378091     88.99647    16383.777 1.4173249e-08 -2.8402321e-08    20.337851  0.077579859 
    3680   -1437299.4   -1425373.5    5502.5828    149.48581    129.45063    179.44527    3472451.3     10.41437    131.82059    16365.513 1.427072e-08 -2.8779715e-08    21.430811  0.077492818 
    3700   -1437299.5     -1425404    5488.5615    149.48283    129.45276    179.44527    3472439.1    43.691685    92.095017    16329.898 1.4476813e-08 -2.9177647e-08    8.1026731  0.077233391 
    3720   -1437299.6   -1425479.3    5453.8032     149.4817    129.45499    179.44527    3472472.7    37.621744    36.197971     16287.59 1.4499267e-08 -2.9291204e-08   -0.9920834  0.076873527 
    3740   -1437299.7   -1425532.7    5429.1594    149.48151    129.45579    179.44527    3472489.8    25.641148    9.1284694    16252.709 1.4615749e-08 -2.9435545e-08   -3.7450024  0.076423651 
    3760   -1437299.8     -1425564    5414.7762    149.48104    129.45614    179.44527    3472488.1     24.33782   -3.9056688    16223.896 1.4643911e-08 -2.9409477e-08   -5.8833869  0.075870919 
    3780   -1437299.8   -1425590.7    5402.5201     149.4799     129.4569    179.44527    3472482.1    33.377123   -21.906084    16196.089 1.4687014e-08 -2.9499709e-08   -10.811635  0.075201278 
    3800   -1437299.9   -1425634.9    5382.1256    149.47816    129.45868    179.44527    3472489.5    45.191456   -61.143162    16162.329 1.4658002e-08 -2.9468056e-08   -20.120571  0.074358556 
    3820     -1437300   -1425715.1    5345.1171     149.4774    129.46057    179.44527    3472522.4    33.033195   -112.79514    16115.113 1.4737173e-08 -2.9516204e-08   -27.321931  0.075263991 
    3840   -1437300.1   -1425773.1    5318.3932    149.47939    129.45927    179.44527    3472533.9   -8.9649277   -107.86274    16072.007 1.4788254e-08 -2.9517798e-08   -18.761399  0.080578719 
    3860   -1437300.2   -1425769.9    5319.9846    149.48115    129.45638    179.44527    3472497.1   -28.966933   -59.321229    16048.242 1.4908084e-08 -2.9517298e-08   -6.2634407  0.084724127 
    3880   -1437300.3   -1425757.6    5325.7593     149.4815    129.45451    179.44527    3472455.2   -27.349686   -24.039285    16028.667 1.494329e-08 -2.9773528e-08  -0.12611835  0.088129851 
    3900   -1437300.4   -1425762.4    5323.6171    149.48156    129.45346    179.44527    3472428.5   -27.089097   -6.7783593    16004.719 1.4987809e-08 -2.9983617e-08    2.9734965  0.091149812 
    3920   -1437300.5   -1425779.3    5315.8864    149.48216    129.45232    179.44527    3472411.7   -37.822915    8.3185532    15977.163 1.5188037e-08 -3.0313915e-08    7.6813482  0.093867727 
    3940   -1437300.6   -1425791.8    5310.2171    149.48358    129.45025    179.44527    3472389.2   -58.117975    39.258963     15949.51 1.5202928e-08 -3.0577819e-08    17.017627  0.096335591 
    3960   -1437300.7   -1425778.8    5316.3508    149.48487    129.44728    179.44527    3472339.4   -68.185709    92.561747    15924.676 1.5304046e-08 -3.0742669e-08    28.557658  0.098629681 
    3980   -1437300.9   -1425755.8    5327.1115    149.48317    129.44638    179.44527    3472275.7     -34.4884    117.34299     15898.48 1.5392337e-08 -3.0769711e-08    26.916568   0.10048596 
    4000     -1437301   -1425775.1     5318.318    149.47986    129.44837    179.44527    3472252.2    7.3169071    83.755252    15863.882 1.5481291e-08 -3.0755191e-08    13.184681   0.10146323 
    4020   -1437301.1   -1425819.4    5297.9048    149.47786    129.45018    179.44527    3472254.6    23.177143    44.764645    15825.773 1.5476848e-08 -3.0716142e-08    3.2030005   0.10173854 
    4040   -1437301.2   -1425859.2    5279.6254    149.47679    129.45105    179.44527      3472253    28.127908    21.804616    15788.944 1.5545155e-08 -3.0705022e-08    -1.875987   0.10147931 
    4060   -1437301.3   -1425887.5    5266.6056     149.4756     129.4516    179.44527    3472239.9    38.438891    7.5717505    15753.806 1.5578065e-08 -3.0660233e-08   -6.3428513   0.10070436 
    4080   -1437301.5   -1425913.7    5254.6314    149.47358    129.45267    179.44527    3472221.8    60.794112   -13.770082     15716.87 1.5545137e-08 -3.0507478e-08   -14.298657  0.099360257 
    4100   -1437301.6   -1425959.3    5233.6703    149.47072    129.45489    179.44527    3472214.9    88.949835   -58.720041    15670.781 1.5502021e-08 -3.0356983e-08   -27.603599   0.10187562 
    4120   -1437301.8   -1426045.7    5193.8406    149.46927     129.4569    179.44527    3472235.1    85.875567   -112.50226    15608.149 1.5587595e-08 -3.0489105e-08   -36.828217   0.10474904 
    4140     -1437302     -1426131    5154.5172    149.47123    129.45584    179.44527    3472252.2    37.440059   -118.19935    15544.311 1.575933e-08 -3.0865694e-08   -29.034426   0.10672057 
    4160   -1437302.1   -1426171.7    5135.8478    149.47376    129.45304    179.44527    3472235.9   -5.2977545   -83.187328    15496.029 1.5805594e-08 -3.1077861e-08    -14.88681   0.10759625 
    4180   -1437302.3   -1426188.1    5128.4099    149.47502    129.45069    179.44527    3472202.2   -23.389919   -48.008865    15456.628 1.5701552e-08 -3.1023173e-08   -5.1989218   0.10762148 
    4200   -1437302.4   -1426206.4    5120.0619    149.47545    129.44914    179.44527    3472170.7   -31.045516   -25.720085    15416.951 1.5627111e-08 -3.088975e-08    0.2471992   0.10693161 
    4220   -1437302.6   -1426234.7     5107.133    149.47594    129.44785    179.44527    3472147.3   -42.469853   -10.605794    15374.475 1.5550363e-08 -3.0869275e-08    5.0757276   0.10553333 
    4240   -1437302.7   -1426265.1    5093.2045    149.47698    129.44612    179.44527    3472125.1   -62.198211     10.57606    15331.236 1.5535577e-08 -3.1000595e-08     12.52029   0.10337072 
    4260   -1437302.9   -1426284.4    5084.4223     149.4787    129.44335    179.44527    3472090.7   -87.424085    51.583972    15289.107 1.554221e-08 -3.0975735e-08    24.561101   0.10179651 
    4280   -1437303.1   -1426275.5     5088.703    149.47982    129.43992    179.44527    3472024.7   -94.954281     112.1512    15248.912 1.5514307e-08 -3.0789431e-08    36.895935   0.10501717 
    4300   -1437303.3   -1426253.8    5098.9575    149.47771    129.43864    179.44527    3471941.3   -54.626282    144.20094    15207.298 1.5396836e-08 -3.0553486e-08     35.34337   0.10783698 
    4320   -1437303.5   -1426269.5    5091.8517    149.47363    129.44045    179.44527    3471895.2   0.10250493    115.69706    15159.756 1.5323002e-08 -3.0371478e-08    20.250238   0.10976403 
    4340   -1437303.7     -1426322    5067.7171     149.4707    129.44272    179.44527      3471888    27.018469    68.208753    15107.924 1.5367287e-08 -3.0347893e-08      6.75635   0.11085605 
    4360   -1437303.9   -1426382.6    5039.8533    149.46923    129.44407    179.44527      3471890    31.816313    32.284682    15055.459 1.5328691e-08 -3.0027181e-08  -0.62979924   0.11131478 
    4380     -1437304   -1426430.5    5017.8289    149.46817    129.44467    179.44527    3471881.6    35.058678    11.836308    15006.592 1.5395658e-08 -3.0196606e-08   -4.9268589   0.11120988 
    4400   -1437304.2   -1426467.3    5000.9371    149.46661    129.44536    179.44527    3471863.7    48.380812   -6.4659321    14960.896 1.5457264e-08 -3.0463342e-08   -10.662425   0.11052902 
    4420   -1437304.4   -1426509.8    4981.4187    149.46411    129.44699    179.44527    3471849.4    72.525113   -41.267725    14912.999 1.5412091e-08 -3.0508743e-08   -21.346721   0.10918861 
    4440   -1437304.5   -1426588.2    4945.3251    149.46141    129.44974    179.44527    3471860.6     88.49088   -104.24506     14851.73 1.5681573e-08 -3.0627816e-08   -35.650373   0.10689745 
    4460   -1437304.7   -1426695.9    4895.6913    149.46198    129.45033    179.44527    3471889.6    51.859809   -142.26259    14777.477 1.5547018e-08 -3.0612963e-08   -35.913824   0.10334278 
    4480   -1437304.9   -1426743.1    4874.0065    149.46526    129.44686    179.44527    3471872.9   -2.7675089   -99.015148    14723.802 1.5493974e-08 -3.0508341e-08   -18.158765  0.099331755 
    4500   -1437305.1   -1426746.9    4872.3896    149.46689    129.44377    179.44527    3471827.7   -22.352869   -48.631621    14688.153 1.5430366e-08 -3.0270616e-08   -5.4726999  0.095253899 
    4520   -1437305.2   -1426755.9    4868.3634    149.46728    129.44204    179.44527    3471790.4   -27.185664   -21.525323    14653.801 1.5315097e-08 -2.9947287e-08    0.3146868  0.090869092 
    4540   -1437305.4   -1426785.3    4854.8633    149.46802    129.44072    179.44527      3471772   -43.267055   -7.1260644    14614.983 1.5209658e-08 -2.9838528e-08     5.832169  0.086030342 
    4560   -1437305.5     -1426823    4837.5619    149.47025    129.43832    179.44527    3471759.4   -81.861238    21.623151    14572.924 1.5278049e-08 -3.0078415e-08    17.997215  0.080514021 
    4580   -1437305.7     -1426830    4834.4353    149.47249     129.4346    179.44527    3471711.8   -110.41087    80.992221    14532.724 1.5076619e-08 -3.0226165e-08    33.882036  0.078286255 
    4600   -1437305.8   -1426812.9    4842.5278    149.46936    129.43467    179.44527    3471640.9   -59.100448    89.131624    14497.552 1.5080232e-08 -3.029251e-08    26.075984  0.077824561 
    4620     -1437306   -1426830.5    4834.5118    149.46555    129.43693    179.44527    3471612.9   -10.422164    51.516587    14462.441 1.5258651e-08 -3.0340618e-08    10.476444  0.077323413 
    4640   -1437306.1   -1426857.2    4822.2628    149.46372    129.43798    179.44527    3471598.7    8.3976383    29.359535    14429.031 1.5416811e-08 -3.019399e-08    3.0776235  0.076747546 
    4660   -1437306.2   -1426866.2    4818.1756    149.46231    129.43816    179.44527    3471570.8    27.096098    26.095867    14401.335 1.5350537e-08 -3.0129657e-08  -0.88591799  0.076071622 
    4680   -1437306.3   -1426847.6    4826.8809    149.45945    129.43868    179.44527    3471518.3    73.941686    26.390187    14380.311 1.4697073e-08 -2.9527234e-08   -9.2802529  0.075253024 
    4700   -1437306.4   -1426849.9    4825.9524    149.45512    129.44093    179.44527      3471478    134.45087   -6.5347762    14349.941 1.4629939e-08 -2.9378052e-08   -26.112566  0.074119563 
    4720   -1437306.6   -1426944.3    4782.4172    149.45556    129.44181    179.44527      3471512    101.94053   -46.834901    14292.146 1.4572316e-08 -2.9233212e-08   -27.518919  0.072619873 
    4740   -1437306.7   -1427018.6    4748.1436    149.45898    129.43979    179.44527    3471537.1    35.040034   -36.097438    14245.488 1.1273633e-08 -2.7003863e-08   -13.521769  0.071211014 
    4760   -1437306.8   -1427052.1    4732.7019    149.46039    129.43839    179.44527    3471532.4    7.7741636   -22.582439    14212.914 1.4453468e-08 -2.9246446e-08    -6.173409  0.070883999 
    4780   -1437306.9   -1427089.8    4715.3709    149.46074    129.43809    179.44527    3471532.5   -6.5246979   -27.455971    14180.093 1.4377571e-08 -2.9131448e-08   -4.4756855   0.07124675 
    4800     -1437307   -1427173.8    4676.6088    149.46193    129.43855    179.44527    3471572.4   -46.702326   -58.658541    14135.187 1.4924831e-08 -2.9339148e-08   -2.8576354  0.071548863 
    4820   -1437307.1   -1427304.1    4616.3965    149.46612    129.43766    179.44527    3471645.9   -141.44025   -83.112029    14073.742 1.4848044e-08 -2.9230078e-08    9.8046936  0.071783995 
    4840   -1437307.2   -1427253.8     4639.809    149.46566    129.43468    179.44527    3471555.3   -116.34366   -17.831185    14053.602 1.3943512e-08 -2.8718607e-08    17.055517  0.072401329 
    4860   -1437307.3   -1427185.7    4671.4259    149.46188    129.43438    179.44527    3471459.5    -41.53032    10.608501    14045.199 1.3885866e-08 -2.8504208e-08    8.6954962  0.072789721 
    4880   -1437307.4   -1427180.8    4673.7835     149.4602    129.43444    179.44527      3471422   -15.171118    13.564115    14022.957  1.38456e-08 -2.8371346e-08    4.4765442  0.072689099 
    4900   -1437307.5   -1427183.4    4672.6776    149.45986    129.43358    179.44527      3471391   -9.0279126    28.451663    13998.609 1.3774889e-08 -2.8282177e-08    6.0541193  0.072193357 
    4920   -1437307.6     -1427135    4695.1595     149.4597     129.4308    179.44527    3471312.8    10.807398    89.492111    13985.179 1.3767932e-08 -2.8350463e-08    13.489884  0.071232194 
    4940   -1437307.8   -1427038.8    4739.8106    149.45652    129.42861    179.44527    3471180.2    87.461551    157.34265    13974.628 1.3847011e-08 -2.845997e-08    11.906847  0.070440792 
    4960   -1437307.9   -1427171.9    4678.3407    149.45493    129.43248    179.44527    3471247.1    70.749505      58.8146    13905.458 1.3888539e-08 -2.8347077e-08   -2.8538549   0.07773148 
    4980     -1437308   -1427277.8    4629.4263    149.45574    129.43383    179.44527      3471302    29.314885    7.3285624    13851.635 1.3863723e-08 -2.8346511e-08    -4.662739  0.083395805 
    5000   -1437308.1   -1427318.1    4610.8798    149.45521    129.43427    179.44527    3471301.5    26.398685   -9.6137124    13815.854 1.3891286e-08 -2.8293374e-08   -7.1879304   0.08846182 
    5020   -1437308.2   -1427356.7    4593.1004    149.45279    129.43621    179.44527    3471297.4    49.762706   -49.419739    13778.958 1.3854834e-08 -2.8241407e-08   -18.553731  0.093419406 
    5040   -1437308.4   -1427450.7    4549.7447    149.45049    129.43939    179.44527    3471329.3    54.897349   -124.88741    13719.224 1.3909933e-08 -2.7849775e-08   -33.039214   0.09919073 
    5060   -1437308.5   -1427493.2    4530.2533    149.45374    129.43605    179.44527    3471315.1    1.5544734    -82.19909    13671.404 1.3628767e-08 -2.7736628e-08   -15.775694     0.104156 
    5080   -1437308.6   -1427491.2    4531.2825    149.45533    129.43313    179.44527    3471273.8   -16.156233   -32.966191     13642.97 1.3546626e-08 -2.7570371e-08   -3.7257123    0.1072869 
    5100   -1437308.7   -1427528.2    4514.2492    149.45638    129.43198    179.44527    3471267.5   -38.940033    -23.57748    13605.265 1.3453814e-08 -2.737866e-08    2.0693928   0.10975028 
    5120   -1437308.9   -1427616.8    4473.3667    149.46044    129.42972    179.44527      3471301   -118.13071   -12.625727    13550.857 1.3416678e-08 -2.7226397e-08    18.312931   0.11182799 
    5140   -1437309.1   -1427621.7     4471.252    149.46166    129.42653    179.44527    3471243.8   -131.16675    40.337418    13504.585 1.3343896e-08 -2.7037943e-08    30.220862   0.11357367 
    5160   -1437309.2   -1427581.7    4489.9272    149.45599    129.42818    179.44527    3471156.5   -37.931453    31.484855    13476.228 1.3206185e-08 -2.6807146e-08    11.808021     0.114062 
    5180   -1437309.3     -1427592    4485.2469    149.45381    129.42877    179.44527    3471121.5   -8.1263654    22.719742    13441.147 1.3075079e-08 -2.6535296e-08    4.8584243   0.11372642 
    5200   -1437309.5   -1427568.9    4496.0748      149.453    129.42706    179.44527      3471057    13.659477    60.226766    13414.338 1.298547e-08 -2.631055e-08    7.6904351   0.11275017 
    5220   -1437309.6   -1427419.2    4565.4735    149.44892    129.42365    179.44527    3470870.8    120.43858     165.1047    13410.877 1.277969e-08 -2.5894297e-08    7.3509318   0.11057877 
    5240   -1437309.8   -1427561.8    4499.6988    149.44703    129.42738    179.44527    3470926.8    106.84953    67.590015    13324.657 1.2623821e-08 -2.5653282e-08   -7.7633977   0.10673569 
    5260     -1437310   -1427713.5    4429.6351    149.44915    129.42868    179.44527    3471010.7    34.442865    3.6706431    13250.792 1.2522853e-08 -2.5516105e-08   -6.2332056   0.10795217 
    5270     -1437310   -1427874.4    4355.2221    149.45993    129.42364    179.44527      3471126   -159.65296    33.742363    13191.577 1.2421161e-08 -2.547682e-08    34.142868   0.10909585 
Loop time of 665.718 on 32 procs for 5079 steps with 324000 atoms

99.9% CPU use with 32 MPI tasks x no OpenMP threads

Minimization stats:
  Stopping criterion = max force evaluations
  Energy initial, next-to-last, final = 
        -1435838.71276     -1437310.01698      -1437310.0496
  Force two-norm initial, final = 161788 358.651
  Force max component initial, final = 114403 350.492
  Final line search alpha, max atom move = 5.0126e-07 0.000175688
  Iterations, force evaluations = 5079 10001

MPI task timing breakdown:
Section |  min time  |  avg time  |  max time  |%varavg| %total
---------------------------------------------------------------
Pair    | 549.05     | 563.09     | 590.24     |  43.0 | 84.58
Neigh   | 0.074155   | 0.078441   | 0.085497   |   1.3 |  0.01
Comm    | 33.772     | 60.003     | 74.676     | 131.9 |  9.01
Output  | 0.51051    | 0.51369    | 0.52452    |   0.3 |  0.08
Modify  | 3.012      | 3.6579     | 4.3408     |  20.6 |  0.55
Other   |            | 38.38      |            |       |  5.76

Nlocal:    10125 ave 10350 max 9900 min
Histogram: 16 0 0 0 0 0 0 0 0 16
Nghost:    12551.5 ave 13970 max 11133 min
Histogram: 16 0 0 0 0 0 0 0 0 16
Neighs:    877162 ave 906678 max 859231 min
Histogram: 10 6 0 6 2 0 0 0 0 8

Total # of neighbors = 28069200
Ave neighs/atom = 86.6333
Neighbor list builds = 2
Dangerous builds = 0
        unfix           3
        next loopvar
    jump SELF loop1
    variable loopvar loop 5
        min_style       cg
        minimize        0.0 1e-6 10000 10000
WARNING: Using 'neigh_modify every 1 delay 0 check yes' setting during minimization (../min.cpp:168)
Last active /omp style is pair_style eam/alloy/omp
Per MPI rank memory allocation (min/avg/max) = 11.63 | 11.74 | 12.01 Mbytes
Step PotEng Enthalpy Press Lx Ly Lz Volume Pxx Pyy Pzz Pxy Pxz Pyz Fmax 
    5270     -1437310   -1427874.4    4338.3067    149.45993    129.42364    180.14494    3484660.2   -159.03288     33.61131    13140.342 1.2391173e-08 -2.5391473e-08    34.010259   0.10909585 
    5280   -1437380.4   -1427126.6    4714.4717    149.45993    129.42364    180.14494    3484660.2    19.931443    210.49924    13912.984 -1.5156213e-09 3.1206521e-09     31.56604  0.023982958 
    5300   -1437440.1   -1431870.4    2560.8253    149.45993    129.42364    180.14494    3484660.2   -1143.7255   -958.87942    9785.0809 4.6440618e-09 -1.0198931e-08    23.452125   0.02422128 
    5320   -1437482.5   -1443223.8    -2639.739    149.45993    129.42364    180.14494    3484660.2   -3953.2343   -3774.2323   -191.75055 -6.3892178e-09 1.3351011e-08    17.418029 0.00094448189 
    5340   -1437482.5     -1443228   -2641.6419    149.45993    129.42364    180.14494    3484660.2   -3953.9192   -3774.8864   -196.12006 1.4109227e-09 -2.9597361e-09     17.46414 0.0002686234 
    5360   -1437482.6   -1443013.9   -2543.2181    149.45993    129.42364    180.14494    3484660.2    -3901.406   -3722.2909   -5.9571834 9.8353739e-09 -2.0650906e-08    17.542816 0.00035503749 
    5380   -1437482.6     -1443003   -2538.1965    149.45993    129.42364    180.14494    3484660.2   -3897.6555   -3720.9128    3.9786985 -5.3532866e-09 1.1191334e-08    15.034495 4.4040672e-05 
    5400   -1437482.6   -1443004.3   -2538.8097    149.45993    129.42364    180.14494    3484660.2   -3896.3933   -3722.8387    2.8027612 1.6178632e-09 -3.4873064e-09    11.635351 1.8876582e-05 
    5420   -1437482.6     -1443009   -2540.9452    149.45993    129.42364    180.14494    3484660.2   -3894.1445     -3727.36   -1.3311866 8.7032381e-10 -1.8099458e-09     4.416741 3.5210534e-05 
    5440   -1437482.6     -1443010   -2541.4136    149.45993    129.42364    180.14494    3484660.2   -3892.9378   -3729.0706   -2.2323972 -3.637729e-09 7.5585704e-09    1.3137348 2.7173775e-05 
    5460   -1437482.6   -1443009.9   -2541.3709    149.45993    129.42364    180.14494    3484660.2   -3892.3955    -3729.557   -2.1602601 3.6406693e-11 -1.0232032e-10   0.21140358 9.1837382e-06 
    5461   -1437482.6   -1443009.9   -2541.3709    149.45993    129.42364    180.14494    3484660.2   -3892.3955    -3729.557   -2.1602601 3.6406693e-11 -1.0232032e-10   0.21140358 9.1837382e-06 
Loop time of 26.0068 on 32 procs for 191 steps with 324000 atoms

99.9% CPU use with 32 MPI tasks x no OpenMP threads

Minimization stats:
  Stopping criterion = linesearch alpha is zero
  Energy initial, next-to-last, final = 
         -1437310.0496     -1437482.55423     -1437482.55423
  Force two-norm initial, final = 17.2401 0.00205628
  Force max component initial, final = 0.109096 9.18374e-06
  Final line search alpha, max atom move = 0.00195312 1.7937e-08
  Iterations, force evaluations = 191 399

MPI task timing breakdown:
Section |  min time  |  avg time  |  max time  |%varavg| %total
---------------------------------------------------------------
Pair    | 21.759     | 22.293     | 23.517     |   9.3 | 85.72
Neigh   | 0          | 0          | 0          |   0.0 |  0.00
Comm    | 1.4751     | 2.6671     | 3.2622     |  28.1 | 10.26
Output  | 0.021213   | 0.021942   | 0.022626   |   0.2 |  0.08
Modify  | 0.090607   | 0.12468    | 0.14899    |   5.3 |  0.48
Other   |            | 0.8996     |            |       |  3.46

Nlocal:    10125 ave 10350 max 9900 min
Histogram: 16 0 0 0 0 0 0 0 0 16
Nghost:    12153.8 ave 13970 max 10337 min
Histogram: 16 0 0 0 0 0 0 0 0 16
Neighs:    877162 ave 906729 max 859384 min
Histogram: 10 6 0 6 2 0 0 0 0 8

Total # of neighbors = 28069200
Ave neighs/atom = 86.6333
Neighbor list builds = 0
Dangerous builds = 0
        fix             3 all box/relax x 0.0 y 0.0
        min_style       cg
        minimize        0.0 1e-6 10000 10000
WARNING: Using 'neigh_modify every 1 delay 0 check yes' setting during minimization (../min.cpp:168)
Last active /omp style is pair_style eam/alloy/omp
Per MPI rank memory allocation (min/avg/max) = 11.63 | 11.74 | 12.01 Mbytes
Step PotEng Enthalpy Press Lx Ly Lz Volume Pxx Pyy Pzz Pxy Pxz Pyz Fmax 
    5461   -1437482.6   -1443009.9   -2531.9837    149.45993    129.42364    180.81282    3497579.4   -3878.0179    -3715.781   -2.1522806 4.8484469e-11 -9.5823226e-11   0.21062271 9.1837382e-06 
    5478   -1437489.6   -1436300.6    545.57108    149.32673    129.31872    180.81282    3491629.5  0.098617236 -0.036864832    1636.6515 2.8156913e-11 -1.6120778e-10   -28.321412 0.0054086827 
Loop time of 3.59667 on 32 procs for 17 steps with 324000 atoms

99.9% CPU use with 32 MPI tasks x no OpenMP threads

Minimization stats:
  Stopping criterion = linesearch alpha is zero
  Energy initial, next-to-last, final = 
        -1437482.55423      -1437489.6145      -1437489.6145
  Force two-norm initial, final = 11681.4 0.538553
  Force max component initial, final = 8434.51 0.214314
  Final line search alpha, max atom move = 3.13726e-08 6.7236e-09
  Iterations, force evaluations = 17 53

MPI task timing breakdown:
Section |  min time  |  avg time  |  max time  |%varavg| %total
---------------------------------------------------------------
Pair    | 2.9681     | 3.0407     | 3.2073     |   3.2 | 84.54
Neigh   | 0          | 0          | 0          |   0.0 |  0.00
Comm    | 0.18482    | 0.34509    | 0.42724    |   9.9 |  9.59
Output  | 0          | 0          | 0          |   0.0 |  0.00
Modify  | 0.0175     | 0.020483   | 0.023488   |   1.3 |  0.57
Other   |            | 0.1904     |            |       |  5.29

Nlocal:    10125 ave 10350 max 9900 min
Histogram: 16 0 0 0 0 0 0 0 0 16
Nghost:    12551.5 ave 13970 max 11133 min
Histogram: 16 0 0 0 0 0 0 0 0 16
Neighs:    877162 ave 906637 max 859465 min
Histogram: 10 6 0 6 2 0 0 0 0 8

Total # of neighbors = 28069200
Ave neighs/atom = 86.6333
Neighbor list builds = 0
Dangerous builds = 0
        unfix           3
        next loopvar
    jump SELF loop1
    variable loopvar loop 5
        min_style       cg
        minimize        0.0 1e-6 10000 10000
WARNING: Using 'neigh_modify every 1 delay 0 check yes' setting during minimization (../min.cpp:168)
Last active /omp style is pair_style eam/alloy/omp
Per MPI rank memory allocation (min/avg/max) = 11.63 | 11.74 | 12.01 Mbytes
Step PotEng Enthalpy Press Lx Ly Lz Volume Pxx Pyy Pzz Pxy Pxz Pyz Fmax 
    5478   -1437489.6   -1436300.6    545.56583    149.32673    129.31872    180.81456      3491663  0.098616288 -0.036864478    1636.6357 5.3874521e-11 -1.619496e-10    -28.32114 0.0054086827 
    5480   -1437489.7   -1436377.3    510.42174    149.32673    129.31872    180.81456      3491663   -19.435462   -19.166326     1569.867 3.3764496e-11 -1.8298557e-10   -27.912408 0.0059654754 
    5500     -1437490   -1437263.7    103.83921    149.32673    129.31872    180.81456      3491663   -240.99808   -234.91295    787.42867 -3.1325732e-11 5.1853085e-11   -21.555902 0.0054243243 
    5520   -1437490.4   -1438173.4   -313.37602    149.32673    129.31872    180.81456      3491663   -467.47262   -455.42675   -17.228687 -1.401181e-10 2.5444006e-10   -15.031645 0.0048138719 
    5540   -1437490.5   -1438200.2   -325.65644    149.32673    129.31872    180.81456      3491663     -474.229   -461.99491   -40.745398 -1.2289025e-10 -5.0851497e-10   -14.825515 0.00020456945 
    5560   -1437490.5   -1438155.2   -305.00713    149.32673    129.31872    180.81456      3491663   -462.95676   -451.03568   -1.0289404 -6.1960264e-11 1.8126409e-10   -15.167257 7.3310618e-05 
    5580   -1437490.5   -1438145.8   -300.72469    149.32673    129.31872    180.81456      3491663   -462.12256   -447.22302    7.1715176 -2.6709034e-11 7.265431e-11   -12.013356 2.8652335e-05 
    5600   -1437490.5   -1438147.9   -301.67212    149.32673    129.31872    180.81456      3491663   -464.30908   -446.05386    5.3465927 6.630309e-11 -1.7282623e-10   -8.4633504 4.3609512e-05 
    5620   -1437490.5   -1438152.6   -303.81279    149.32673    129.31872    180.81456      3491663    -467.4807   -445.18905    1.2313602 -2.5848294e-11 1.0733171e-11   -4.1909264 1.8748801e-05 
    5640   -1437490.5   -1438156.8   -305.77427    149.32673    129.31872    180.81456      3491663   -470.04048   -444.74918   -2.5331379 -5.5435591e-10 -2.9512961e-11   -1.0170968 1.9055673e-05 
    5660   -1437490.5   -1438158.8   -306.66075    149.32673    129.31872    180.81456      3491663   -470.67444   -445.06942   -4.2384024 -5.6821905e-11 3.8563776e-11  -0.68428409 5.463588e-06 
Loop time of 24.4887 on 32 procs for 182 steps with 324000 atoms

99.9% CPU use with 32 MPI tasks x no OpenMP threads

Minimization stats:
  Stopping criterion = linesearch alpha is zero
  Energy initial, next-to-last, final = 
         -1437489.6145     -1437490.45262     -1437490.45262
  Force two-norm initial, final = 0.487536 0.000871699
  Force max component initial, final = 0.00540868 5.46359e-06
  Final line search alpha, max atom move = 0.015625 8.53686e-08
  Iterations, force evaluations = 182 375

MPI task timing breakdown:
Section |  min time  |  avg time  |  max time  |%varavg| %total
---------------------------------------------------------------
Pair    | 20.491     | 21.014     | 22.159     |   9.6 | 85.81
Neigh   | 0          | 0          | 0          |   0.0 |  0.00
Comm    | 1.3704     | 2.4936     | 3.068      |  28.6 | 10.18
Output  | 0.021676   | 0.021834   | 0.022325   |   0.1 |  0.09
Modify  | 0.089258   | 0.12242    | 0.14605    |   4.4 |  0.50
Other   |            | 0.8367     |            |       |  3.42

Nlocal:    10125 ave 10350 max 9900 min
Histogram: 16 0 0 0 0 0 0 0 0 16
Nghost:    12551.5 ave 13970 max 11133 min
Histogram: 16 0 0 0 0 0 0 0 0 16
Neighs:    877162 ave 906692 max 859424 min
Histogram: 10 6 0 6 2 0 0 0 0 8

Total # of neighbors = 28069200
Ave neighs/atom = 86.6333
Neighbor list builds = 0
Dangerous builds = 0
        fix             3 all box/relax x 0.0 y 0.0
        min_style       cg
        minimize        0.0 1e-6 10000 10000
WARNING: Using 'neigh_modify every 1 delay 0 check yes' setting during minimization (../min.cpp:168)
Last active /omp style is pair_style eam/alloy/omp
Per MPI rank memory allocation (min/avg/max) = 11.63 | 11.74 | 12.01 Mbytes
Step PotEng Enthalpy Press Lx Ly Lz Volume Pxx Pyy Pzz Pxy Pxz Pyz Fmax 
    5660   -1437490.5   -1438158.8   -306.51785    149.32673    129.31872    180.89885    3493290.9   -470.45512   -444.86202   -4.2364274 -4.2665006e-11 3.8871692e-11  -0.68396522 5.463588e-06 
    5664   -1437490.6   -1437349.1    64.901441    149.31069    129.30647    180.89885    3492584.7  -0.06084925 -0.056949952    194.82212 -8.1266345e-11 1.1111051e-10   -5.2069255 0.00093892187 
Loop time of 1.91516 on 32 procs for 4 steps with 324000 atoms

100.0% CPU use with 32 MPI tasks x no OpenMP threads

Minimization stats:
  Stopping criterion = linesearch alpha is zero
  Energy initial, next-to-last, final = 
        -1437490.45262     -1437490.55379     -1437490.55379
  Force two-norm initial, final = 1411.07 0.199444
  Force max component initial, final = 1025.27 0.132598
  Final line search alpha, max atom move = 2.8603e-07 3.79269e-08
  Iterations, force evaluations = 4 28

MPI task timing breakdown:
Section |  min time  |  avg time  |  max time  |%varavg| %total
---------------------------------------------------------------
Pair    | 1.595      | 1.6361     | 1.7152     |   2.4 | 85.43
Neigh   | 0          | 0          | 0          |   0.0 |  0.00
Comm    | 0.098153   | 0.17467    | 0.21759    |   7.5 |  9.12
Output  | 0          | 0          | 0          |   0.0 |  0.00
Modify  | 0.0093956  | 0.011008   | 0.012778   |   1.0 |  0.57
Other   |            | 0.09342    |            |       |  4.88

Nlocal:    10125 ave 10350 max 9900 min
Histogram: 16 0 0 0 0 0 0 0 0 16
Nghost:    12551.5 ave 13970 max 11133 min
Histogram: 16 0 0 0 0 0 0 0 0 16
Neighs:    877162 ave 906673 max 859460 min
Histogram: 10 6 0 6 2 0 0 0 0 8

Total # of neighbors = 28069200
Ave neighs/atom = 86.6333
Neighbor list builds = 0
Dangerous builds = 0
        unfix           3
        next loopvar
    jump SELF loop1
    variable loopvar loop 5
        min_style       cg
        minimize        0.0 1e-6 10000 10000
WARNING: Using 'neigh_modify every 1 delay 0 check yes' setting during minimization (../min.cpp:168)
Last active /omp style is pair_style eam/alloy/omp
Per MPI rank memory allocation (min/avg/max) = 11.63 | 11.74 | 12.01 Mbytes
Step PotEng Enthalpy Press Lx Ly Lz Volume Pxx Pyy Pzz Pxy Pxz Pyz Fmax 
    5664   -1437490.6   -1437349.1    64.901441    149.31069    129.30647    180.89885    3492584.7  -0.06084925 -0.056949952    194.82212 -8.1266345e-11 1.1111051e-10   -5.2069255 0.00093892187 
    5680   -1437490.6   -1437429.1    28.209444    149.31069    129.30647    180.89885    3492584.7    -20.67878   -19.965718    125.27283 -6.7002687e-11 9.2218331e-11   -4.4565414 0.00062612131 
    5700   -1437490.6   -1437528.6   -17.436588    149.31069    129.30647    180.89885    3492584.7   -45.907759   -44.085306      37.6833 -1.3142383e-11 4.6937083e-11   -3.2793508 0.00063872843 
    5710   -1437490.6   -1437572.5   -37.593537    149.31069    129.30647    180.89885    3492584.7   -57.049544   -54.736385  -0.99468394 -5.2478267e-11 6.1578846e-11    -2.758604 9.3219719e-06 
Loop time of 7.04973 on 32 procs for 46 steps with 324000 atoms

99.9% CPU use with 32 MPI tasks x no OpenMP threads

Minimization stats:
  Stopping criterion = linesearch alpha is zero
  Energy initial, next-to-last, final = 
        -1437490.55379     -1437490.56577     -1437490.56577
  Force two-norm initial, final = 0.0824329 0.00133047
  Force max component initial, final = 0.000938922 9.32197e-06
  Final line search alpha, max atom move = 0.00390625 3.6414e-08
  Iterations, force evaluations = 46 107

MPI task timing breakdown:
Section |  min time  |  avg time  |  max time  |%varavg| %total
---------------------------------------------------------------
Pair    | 5.8833     | 6.025      | 6.3571     |   4.7 | 85.46
Neigh   | 0          | 0          | 0          |   0.0 |  0.00
Comm    | 0.42357    | 0.745      | 0.90261    |  13.9 | 10.57
Output  | 0.0043917  | 0.0044779  | 0.004601   |   0.1 |  0.06
Modify  | 0.026668   | 0.035173   | 0.041793   |   2.2 |  0.50
Other   |            | 0.2401     |            |       |  3.41

Nlocal:    10125 ave 10350 max 9900 min
Histogram: 16 0 0 0 0 0 0 0 0 16
Nghost:    12551.5 ave 13970 max 11133 min
Histogram: 16 0 0 0 0 0 0 0 0 16
Neighs:    877162 ave 906673 max 859460 min
Histogram: 10 6 0 6 2 0 0 0 0 8

Total # of neighbors = 28069200
Ave neighs/atom = 86.6333
Neighbor list builds = 0
Dangerous builds = 0
        fix             3 all box/relax x 0.0 y 0.0
        min_style       cg
        minimize        0.0 1e-6 10000 10000
WARNING: Using 'neigh_modify every 1 delay 0 check yes' setting during minimization (../min.cpp:168)
Last active /omp style is pair_style eam/alloy/omp
Per MPI rank memory allocation (min/avg/max) = 11.63 | 11.74 | 12.01 Mbytes
Step PotEng Enthalpy Press Lx Ly Lz Volume Pxx Pyy Pzz Pxy Pxz Pyz Fmax 
    5710   -1437490.6   -1437572.5   -37.591417    149.31069    129.30647    180.90905    3492781.7   -57.046326   -54.733297  -0.99462784 -3.2084902e-11 5.4104975e-11   -2.7584484 9.3219719e-06 
    5714   -1437490.6   -1437473.7    7.7521421    149.30876    129.30495    180.90905    3492695.8 -0.0020038645 -0.00023207243    23.258662 -4.8291508e-11 5.2893804e-11   -3.1657659 0.00011440051 
Loop time of 1.72048 on 32 procs for 4 steps with 324000 atoms

99.9% CPU use with 32 MPI tasks x no OpenMP threads

Minimization stats:
  Stopping criterion = linesearch alpha is zero
  Energy initial, next-to-last, final = 
        -1437490.56577     -1437490.56727     -1437490.56727
  Force two-norm initial, final = 172.336 0.0110079
  Force max component initial, final = 124.355 0.00436817
  Final line search alpha, max atom move = 5.48142e-05 2.39438e-07
  Iterations, force evaluations = 4 25

MPI task timing breakdown:
Section |  min time  |  avg time  |  max time  |%varavg| %total
---------------------------------------------------------------
Pair    | 1.4323     | 1.4667     | 1.5404     |   2.1 | 85.25
Neigh   | 0          | 0          | 0          |   0.0 |  0.00
Comm    | 0.088307   | 0.15977    | 0.19842    |   6.8 |  9.29
Output  | 0          | 0          | 0          |   0.0 |  0.00
Modify  | 0.0080979  | 0.0097384  | 0.011163   |   0.9 |  0.57
Other   |            | 0.08429    |            |       |  4.90

Nlocal:    10125 ave 10350 max 9900 min
Histogram: 16 0 0 0 0 0 0 0 0 16
Nghost:    12551.5 ave 13970 max 11133 min
Histogram: 16 0 0 0 0 0 0 0 0 16
Neighs:    877162 ave 906685 max 859452 min
Histogram: 10 6 0 6 2 0 0 0 0 8

Total # of neighbors = 28069200
Ave neighs/atom = 86.6333
Neighbor list builds = 0
Dangerous builds = 0
        unfix           3
        next loopvar
    jump SELF loop1
    variable loopvar loop 5
        min_style       cg
        minimize        0.0 1e-6 10000 10000
WARNING: Using 'neigh_modify every 1 delay 0 check yes' setting during minimization (../min.cpp:168)
Last active /omp style is pair_style eam/alloy/omp
Per MPI rank memory allocation (min/avg/max) = 11.63 | 11.74 | 12.01 Mbytes
Step PotEng Enthalpy Press Lx Ly Lz Volume Pxx Pyy Pzz Pxy Pxz Pyz Fmax 
    5714   -1437490.6   -1437473.7    7.7521421    149.30876    129.30495    180.90905    3492695.8 -0.0020038645 -0.00023207243    23.258662 -4.8291508e-11 5.2893804e-11   -3.1657659 0.00011440051 
    5720   -1437490.6   -1437477.4    6.0534648    149.30876    129.30495    180.90905    3492695.8  -0.98238087  -0.96192624    20.104702 6.3884555e-12 2.6270893e-11   -3.1462441 7.4736328e-05 
    5740   -1437490.6   -1437488.9   0.74673766    149.30876    129.30495    180.90905    3492695.8   -3.8878712   -3.7993285    9.9274127 -3.9869177e-11 1.6557834e-12   -3.0739214 6.6627439e-05 
    5760   -1437490.6   -1437500.5   -4.5699904    149.30876    129.30495    180.90905    3492695.8   -6.8385954   -6.6026129  -0.26876298 1.0784756e-10 -1.7997192e-10   -2.9180727 8.2921614e-06 
    5766   -1437490.6   -1437500.6   -4.6039687    149.30876    129.30495    180.90905    3492695.8   -6.9217685    -6.556254  -0.33388359 3.631511e-10 -2.3658145e-10   -2.7807734 1.0290752e-05 
Loop time of 7.62453 on 32 procs for 52 steps with 324000 atoms

99.9% CPU use with 32 MPI tasks x no OpenMP threads

Minimization stats:
  Stopping criterion = linesearch alpha is zero
  Energy initial, next-to-last, final = 
        -1437490.56727     -1437490.56745     -1437490.56745
  Force two-norm initial, final = 0.0100914 0.00120136
  Force max component initial, final = 0.000114401 1.02908e-05
  Final line search alpha, max atom move = 0.0078125 8.03965e-08
  Iterations, force evaluations = 52 116

MPI task timing breakdown:
Section |  min time  |  avg time  |  max time  |%varavg| %total
---------------------------------------------------------------
Pair    | 6.3775     | 6.5327     | 6.8939     |   4.8 | 85.68
Neigh   | 0          | 0          | 0          |   0.0 |  0.00
Comm    | 0.43709    | 0.78904    | 0.96149    |  14.5 | 10.35
Output  | 0.0069389  | 0.006988   | 0.0071452  |   0.1 |  0.09
Modify  | 0.02862    | 0.037973   | 0.045577   |   2.4 |  0.50
Other   |            | 0.2578     |            |       |  3.38

Nlocal:    10125 ave 10350 max 9900 min
Histogram: 16 0 0 0 0 0 0 0 0 16
Nghost:    12551.5 ave 13970 max 11133 min
Histogram: 16 0 0 0 0 0 0 0 0 16
Neighs:    877162 ave 906685 max 859452 min
Histogram: 10 6 0 6 2 0 0 0 0 8

Total # of neighbors = 28069200
Ave neighs/atom = 86.6333
Neighbor list builds = 0
Dangerous builds = 0
        fix             3 all box/relax x 0.0 y 0.0
        min_style       cg
        minimize        0.0 1e-6 10000 10000
WARNING: Using 'neigh_modify every 1 delay 0 check yes' setting during minimization (../min.cpp:168)
Last active /omp style is pair_style eam/alloy/omp
Per MPI rank memory allocation (min/avg/max) = 11.63 | 11.74 | 12.01 Mbytes
Step PotEng Enthalpy Press Lx Ly Lz Volume Pxx Pyy Pzz Pxy Pxz Pyz Fmax 
    5766   -1437490.6   -1437500.6   -4.6039373    149.30876    129.30495    180.91029    3492719.6   -6.9217213   -6.5562093  -0.33388131 3.4892463e-10 -2.4767482e-10   -2.7807545 1.0290752e-05 
    5769   -1437490.6   -1437488.6   0.88170724    149.30853    129.30477    180.91029    3492709.2  0.018155426  0.027397503    2.5995688 3.4278495e-10 -2.7845736e-10   -2.8434123 1.9450559e-05 
Loop time of 1.52041 on 32 procs for 3 steps with 324000 atoms

99.9% CPU use with 32 MPI tasks x no OpenMP threads

Minimization stats:
  Stopping criterion = linesearch alpha is zero
  Energy initial, next-to-last, final = 
        -1437490.56745     -1437490.56747     -1437490.56747
  Force two-norm initial, final = 20.7835 0.0716689
  Force max component initial, final = 15.0891 0.0597256
  Final line search alpha, max atom move = 1.42656e-06 8.5202e-08
  Iterations, force evaluations = 3 22

MPI task timing breakdown:
Section |  min time  |  avg time  |  max time  |%varavg| %total
---------------------------------------------------------------
Pair    | 1.2667     | 1.2963     | 1.3596     |   2.0 | 85.26
Neigh   | 0          | 0          | 0          |   0.0 |  0.00
Comm    | 0.078826   | 0.14047    | 0.17391    |   6.4 |  9.24
Output  | 0          | 0          | 0          |   0.0 |  0.00
Modify  | 0.0071077  | 0.0085254  | 0.0099864  |   0.9 |  0.56
Other   |            | 0.07513    |            |       |  4.94

Nlocal:    10125 ave 10350 max 9900 min
Histogram: 16 0 0 0 0 0 0 0 0 16
Nghost:    12551.5 ave 13970 max 11133 min
Histogram: 16 0 0 0 0 0 0 0 0 16
Neighs:    877162 ave 906685 max 859473 min
Histogram: 10 6 0 6 2 0 0 0 0 8

Total # of neighbors = 28069200
Ave neighs/atom = 86.6333
Neighbor list builds = 0
Dangerous builds = 0
        unfix           3
        next loopvar
    jump SELF loop1

# center the box around the origin
variable        size_x equal lx/2
variable        size_y equal ly/2
variable        size_z equal lz/2
change_box      all x final -${size_x} ${size_x} y final -${size_y} ${size_y} z final -${size_z} ${size_z} remap
change_box      all x final -74.6542639229116 ${size_x} y final -${size_y} ${size_y} z final -${size_z} ${size_z} remap
change_box      all x final -74.6542639229116 74.6542639229116 y final -${size_y} ${size_y} z final -${size_z} ${size_z} remap
change_box      all x final -74.6542639229116 74.6542639229116 y final -64.6523857901041 ${size_y} z final -${size_z} ${size_z} remap
change_box      all x final -74.6542639229116 74.6542639229116 y final -64.6523857901041 64.6523857901041 z final -${size_z} ${size_z} remap
change_box      all x final -74.6542639229116 74.6542639229116 y final -64.6523857901041 64.6523857901041 z final -90.455143551096 ${size_z} remap
change_box      all x final -74.6542639229116 74.6542639229116 y final -64.6523857901041 64.6523857901041 z final -90.455143551096 90.455143551096 remap
  orthogonal box = (-74.6543 -60.2049 3.77907) to (74.6543 69.0999 184.726)
  orthogonal box = (-74.6543 -64.6524 3.76097) to (74.6543 64.6524 184.744)
  orthogonal box = (-74.6543 -64.6524 -90.4732) to (74.6543 64.6524 90.4732)

write_data      min.data
Last active /omp style is pair_style eam/alloy/omp
clear
package omp 0
WARNING: OpenMP support not enabled during compilation; using 1 thread only. (../fix_omp.cpp:123)
# sf datapoints

label loop2
    variable loopvar loop 100
        log             ${loopvar}.log
        log             1.log
